title = Problem-4 Plot
variables = x,y,temp
zone i=100, j=100, f=point
0.005	0.005	450.004
0.015	0.005	531.983
0.025	0.005	559.877
0.035	0.005	571.998
0.045	0.005	578.487
0.055	0.005	582.511
0.065	0.005	585.259
0.075	0.005	587.26
0.085	0.005	588.785
0.095	0.005	589.986
0.105	0.005	590.958
0.115	0.005	591.761
0.125	0.005	592.435
0.135	0.005	593.01
0.145	0.005	593.507
0.155	0.005	593.939
0.165	0.005	594.32
0.175	0.005	594.658
0.185	0.005	594.959
0.195	0.005	595.231
0.205	0.005	595.476
0.215	0.005	595.698
0.225	0.005	595.901
0.235	0.005	596.088
0.245	0.005	596.259
0.255	0.005	596.417
0.265	0.005	596.563
0.275	0.005	596.699
0.285	0.005	596.826
0.295	0.005	596.944
0.305	0.005	597.054
0.315	0.005	597.158
0.325	0.005	597.255
0.335	0.005	597.346
0.345	0.005	597.433
0.355	0.005	597.514
0.365	0.005	597.591
0.375	0.005	597.663
0.385	0.005	597.732
0.395	0.005	597.798
0.405	0.005	597.86
0.415	0.005	597.919
0.425	0.005	597.975
0.435	0.005	598.029
0.445	0.005	598.08
0.455	0.005	598.128
0.465	0.005	598.174
0.475	0.005	598.219
0.485	0.005	598.261
0.495	0.005	598.301
0.505	0.005	598.34
0.515	0.005	598.377
0.525	0.005	598.412
0.535	0.005	598.446
0.545	0.005	598.479
0.555	0.005	598.51
0.565	0.005	598.539
0.575	0.005	598.568
0.585	0.005	598.595
0.595	0.005	598.621
0.605	0.005	598.646
0.615	0.005	598.671
0.625	0.005	598.693
0.635	0.005	598.716
0.645	0.005	598.737
0.655	0.005	598.757
0.665	0.005	598.776
0.675	0.005	598.795
0.685	0.005	598.812
0.695	0.005	598.829
0.705	0.005	598.845
0.715	0.005	598.861
0.725	0.005	598.875
0.735	0.005	598.889
0.745	0.005	598.903
0.755	0.005	598.915
0.765	0.005	598.928
0.775	0.005	598.939
0.785	0.005	598.95
0.795	0.005	598.96
0.805	0.005	598.97
0.815	0.005	598.979
0.825	0.005	598.987
0.835	0.005	598.996
0.845	0.005	599.003
0.855	0.005	599.01
0.865	0.005	599.017
0.875	0.005	599.023
0.885	0.005	599.028
0.895	0.005	599.033
0.905	0.005	599.038
0.915	0.005	599.042
0.925	0.005	599.045
0.935	0.005	599.049
0.945	0.005	599.051
0.955	0.005	599.054
0.965	0.005	599.055
0.975	0.005	599.057
0.985	0.005	599.058
0.995	0.005	599.058

0.005	0.015	368.039
0.015	0.015	450.032
0.025	0.015	495.406
0.035	0.015	521.624
0.045	0.015	537.926
0.055	0.015	548.81
0.065	0.015	556.525
0.075	0.015	562.257
0.085	0.015	566.678
0.095	0.015	570.188
0.105	0.015	573.043
0.115	0.015	575.41
0.125	0.015	577.405
0.135	0.015	579.11
0.145	0.015	580.583
0.155	0.015	581.87
0.165	0.015	583.003
0.175	0.015	584.009
0.185	0.015	584.909
0.195	0.015	585.718
0.205	0.015	586.449
0.215	0.015	587.114
0.225	0.015	587.721
0.235	0.015	588.278
0.245	0.015	588.79
0.255	0.015	589.263
0.265	0.015	589.7
0.275	0.015	590.107
0.285	0.015	590.485
0.295	0.015	590.839
0.305	0.015	591.169
0.315	0.015	591.479
0.325	0.015	591.77
0.335	0.015	592.044
0.345	0.015	592.302
0.355	0.015	592.546
0.365	0.015	592.776
0.375	0.015	592.994
0.385	0.015	593.201
0.395	0.015	593.397
0.405	0.015	593.583
0.415	0.015	593.76
0.425	0.015	593.928
0.435	0.015	594.088
0.445	0.015	594.241
0.455	0.015	594.386
0.465	0.015	594.525
0.475	0.015	594.658
0.485	0.015	594.785
0.495	0.015	594.906
0.505	0.015	595.022
0.515	0.015	595.133
0.525	0.015	595.239
0.535	0.015	595.34
0.545	0.015	595.438
0.555	0.015	595.531
0.565	0.015	595.62
0.575	0.015	595.705
0.585	0.015	595.787
0.595	0.015	595.865
0.605	0.015	595.941
0.615	0.015	596.013
0.625	0.015	596.081
0.635	0.015	596.147
0.645	0.015	596.211
0.655	0.015	596.271
0.665	0.015	596.329
0.675	0.015	596.385
0.685	0.015	596.438
0.695	0.015	596.488
0.705	0.015	596.537
0.715	0.015	596.583
0.725	0.015	596.627
0.735	0.015	596.669
0.745	0.015	596.709
0.755	0.015	596.747
0.765	0.015	596.783
0.775	0.015	596.818
0.785	0.015	596.85
0.795	0.015	596.881
0.805	0.015	596.91
0.815	0.015	596.937
0.825	0.015	596.963
0.835	0.015	596.987
0.845	0.015	597.01
0.855	0.015	597.031
0.865	0.015	597.05
0.875	0.015	597.068
0.885	0.015	597.085
0.895	0.015	597.1
0.905	0.015	597.114
0.915	0.015	597.126
0.925	0.015	597.137
0.935	0.015	597.146
0.945	0.015	597.154
0.955	0.015	597.161
0.965	0.015	597.166
0.975	0.015	597.17
0.985	0.015	597.173
0.995	0.015	597.175

0.005	0.025	340.159
0.015	0.025	404.702
0.025	0.025	450.09
0.035	0.025	481.168
0.045	0.025	502.781
0.055	0.025	518.28
0.065	0.025	529.773
0.075	0.025	538.566
0.085	0.025	545.48
0.095	0.025	551.046
0.105	0.025	555.616
0.115	0.025	559.432
0.125	0.025	562.666
0.135	0.025	565.44
0.145	0.025	567.846
0.155	0.025	569.953
0.165	0.025	571.813
0.175	0.025	573.467
0.185	0.025	574.948
0.195	0.025	576.282
0.205	0.025	577.489
0.215	0.025	578.588
0.225	0.025	579.592
0.235	0.025	580.512
0.245	0.025	581.36
0.255	0.025	582.143
0.265	0.025	582.869
0.275	0.025	583.543
0.285	0.025	584.17
0.295	0.025	584.757
0.305	0.025	585.305
0.315	0.025	585.82
0.325	0.025	586.303
0.335	0.025	586.758
0.345	0.025	587.187
0.355	0.025	587.591
0.365	0.025	587.974
0.375	0.025	588.336
0.385	0.025	588.68
0.395	0.025	589.005
0.405	0.025	589.315
0.415	0.025	589.609
0.425	0.025	589.889
0.435	0.025	590.155
0.445	0.025	590.409
0.455	0.025	590.651
0.465	0.025	590.883
0.475	0.025	591.103
0.485	0.025	591.314
0.495	0.025	591.516
0.505	0.025	591.709
0.515	0.025	591.893
0.525	0.025	592.07
0.535	0.025	592.239
0.545	0.025	592.4
0.555	0.025	592.555
0.565	0.025	592.704
0.575	0.025	592.846
0.585	0.025	592.982
0.595	0.025	593.113
0.605	0.025	593.238
0.615	0.025	593.358
0.625	0.025	593.472
0.635	0.025	593.582
0.645	0.025	593.687
0.655	0.025	593.788
0.665	0.025	593.885
0.675	0.025	593.977
0.685	0.025	594.065
0.695	0.025	594.15
0.705	0.025	594.23
0.715	0.025	594.307
0.725	0.025	594.38
0.735	0.025	594.451
0.745	0.025	594.517
0.755	0.025	594.58
0.765	0.025	594.641
0.775	0.025	594.698
0.785	0.025	594.752
0.795	0.025	594.803
0.805	0.025	594.852
0.815	0.025	594.897
0.825	0.025	594.94
0.835	0.025	594.98
0.845	0.025	595.018
0.855	0.025	595.053
0.865	0.025	595.086
0.875	0.025	595.116
0.885	0.025	595.143
0.895	0.025	595.168
0.905	0.025	595.191
0.915	0.025	595.211
0.925	0.025	595.229
0.935	0.025	595.245
0.945	0.025	595.259
0.955	0.025	595.27
0.965	0.025	595.279
0.975	0.025	595.286
0.985	0.025	595.29
0.995	0.025	595.292

0.005	0.035	328.052
0.015	0.035	378.526
0.025	0.035	419.083
0.035	0.035	450.176
0.045	0.035	473.751
0.055	0.035	491.755
0.065	0.035	505.721
0.075	0.035	516.754
0.085	0.035	525.631
0.095	0.035	532.899
0.105	0.035	538.942
0.115	0.035	544.037
0.125	0.035	548.386
0.135	0.035	552.139
0.145	0.035	555.409
0.155	0.035	558.283
0.165	0.035	560.829
0.175	0.035	563.099
0.185	0.035	565.135
0.195	0.035	566.972
0.205	0.035	568.639
0.215	0.035	570.156
0.225	0.035	571.545
0.235	0.035	572.82
0.245	0.035	573.995
0.255	0.035	575.081
0.265	0.035	576.088
0.275	0.035	577.024
0.285	0.035	577.897
0.295	0.035	578.712
0.305	0.035	579.475
0.315	0.035	580.191
0.325	0.035	580.864
0.335	0.035	581.498
0.345	0.035	582.095
0.355	0.035	582.659
0.365	0.035	583.192
0.375	0.035	583.697
0.385	0.035	584.176
0.395	0.035	584.63
0.405	0.035	585.062
0.415	0.035	585.472
0.425	0.035	585.863
0.435	0.035	586.235
0.445	0.035	586.589
0.455	0.035	586.928
0.465	0.035	587.25
0.475	0.035	587.559
0.485	0.035	587.853
0.495	0.035	588.135
0.505	0.035	588.404
0.515	0.035	588.662
0.525	0.035	588.908
0.535	0.035	589.144
0.545	0.035	589.37
0.555	0.035	589.587
0.565	0.035	589.794
0.575	0.035	589.993
0.585	0.035	590.183
0.595	0.035	590.365
0.605	0.035	590.54
0.615	0.035	590.708
0.625	0.035	590.868
0.635	0.035	591.022
0.645	0.035	591.169
0.655	0.035	591.31
0.665	0.035	591.444
0.675	0.035	591.573
0.685	0.035	591.697
0.695	0.035	591.815
0.705	0.035	591.927
0.715	0.035	592.035
0.725	0.035	592.137
0.735	0.035	592.235
0.745	0.035	592.328
0.755	0.035	592.417
0.765	0.035	592.501
0.775	0.035	592.581
0.785	0.035	592.657
0.795	0.035	592.729
0.805	0.035	592.796
0.815	0.035	592.86
0.825	0.035	592.92
0.835	0.035	592.976
0.845	0.035	593.029
0.855	0.035	593.078
0.865	0.035	593.123
0.875	0.035	593.165
0.885	0.035	593.204
0.895	0.035	593.239
0.905	0.035	593.271
0.915	0.035	593.299
0.925	0.035	593.325
0.935	0.035	593.347
0.945	0.035	593.365
0.955	0.035	593.381
0.965	0.035	593.394
0.975	0.035	593.403
0.985	0.035	593.409
0.995	0.035	593.412

0.005	0.045	321.578
0.015	0.045	362.268
0.025	0.045	397.542
0.035	0.045	426.701
0.045	0.045	450.29
0.055	0.045	469.27
0.065	0.045	484.602
0.075	0.045	497.097
0.085	0.045	507.393
0.095	0.045	515.976
0.105	0.045	523.216
0.115	0.045	529.387
0.125	0.045	534.702
0.135	0.045	539.321
0.145	0.045	543.368
0.155	0.045	546.942
0.165	0.045	550.12
0.175	0.045	552.963
0.185	0.045	555.521
0.195	0.045	557.834
0.205	0.045	559.936
0.215	0.045	561.854
0.225	0.045	563.612
0.235	0.045	565.228
0.245	0.045	566.719
0.255	0.045	568.098
0.265	0.045	569.379
0.275	0.045	570.57
0.285	0.045	571.681
0.295	0.045	572.72
0.305	0.045	573.693
0.315	0.045	574.606
0.325	0.045	575.465
0.335	0.045	576.274
0.345	0.045	577.037
0.355	0.045	577.757
0.365	0.045	578.439
0.375	0.045	579.085
0.385	0.045	579.697
0.395	0.045	580.278
0.405	0.045	580.83
0.415	0.045	581.356
0.425	0.045	581.856
0.435	0.045	582.332
0.445	0.045	582.786
0.455	0.045	583.219
0.465	0.045	583.633
0.475	0.045	584.028
0.485	0.045	584.405
0.495	0.045	584.766
0.505	0.045	585.111
0.515	0.045	585.441
0.525	0.045	585.757
0.535	0.045	586.06
0.545	0.045	586.35
0.555	0.045	586.627
0.565	0.045	586.893
0.575	0.045	587.148
0.585	0.045	587.392
0.595	0.045	587.626
0.605	0.045	587.85
0.615	0.045	588.065
0.625	0.045	588.271
0.635	0.045	588.468
0.645	0.045	588.656
0.655	0.045	588.837
0.665	0.045	589.01
0.675	0.045	589.176
0.685	0.045	589.334
0.695	0.045	589.485
0.705	0.045	589.63
0.715	0.045	589.768
0.725	0.045	589.899
0.735	0.045	590.025
0.745	0.045	590.144
0.755	0.045	590.258
0.765	0.045	590.366
0.775	0.045	590.469
0.785	0.045	590.566
0.795	0.045	590.658
0.805	0.045	590.745
0.815	0.045	590.827
0.825	0.045	590.904
0.835	0.045	590.976
0.845	0.045	591.043
0.855	0.045	591.106
0.865	0.045	591.164
0.875	0.045	591.218
0.885	0.045	591.268
0.895	0.045	591.313
0.905	0.045	591.354
0.915	0.045	591.39
0.925	0.045	591.423
0.935	0.045	591.451
0.945	0.045	591.475
0.955	0.045	591.496
0.965	0.045	591.512
0.975	0.045	591.524
0.985	0.045	591.532
0.995	0.045	591.536

0.005	0.055	317.568
0.015	0.055	351.426
0.025	0.055	382.114
0.035	0.055	408.796
0.045	0.055	431.439
0.055	0.055	450.434
0.065	0.055	466.32
0.075	0.055	479.638
0.085	0.055	490.866
0.095	0.055	500.399
0.105	0.055	508.557
0.115	0.055	515.595
0.125	0.055	521.714
0.135	0.055	527.073
0.145	0.055	531.801
0.155	0.055	535.998
0.165	0.055	539.746
0.175	0.055	543.113
0.185	0.055	546.152
0.195	0.055	548.908
0.205	0.055	551.418
0.215	0.055	553.713
0.225	0.055	555.82
0.235	0.055	557.761
0.245	0.055	559.554
0.255	0.055	561.215
0.265	0.055	562.758
0.275	0.055	564.196
0.285	0.055	565.538
0.295	0.055	566.793
0.305	0.055	567.97
0.315	0.055	569.076
0.325	0.055	570.116
0.335	0.055	571.096
0.345	0.055	572.021
0.355	0.055	572.895
0.365	0.055	573.722
0.375	0.055	574.506
0.385	0.055	575.249
0.395	0.055	575.955
0.405	0.055	576.626
0.415	0.055	577.264
0.425	0.055	577.872
0.435	0.055	578.451
0.445	0.055	579.003
0.455	0.055	579.53
0.465	0.055	580.033
0.475	0.055	580.514
0.485	0.055	580.973
0.495	0.055	581.413
0.505	0.055	581.833
0.515	0.055	582.235
0.525	0.055	582.62
0.535	0.055	582.988
0.545	0.055	583.341
0.555	0.055	583.679
0.565	0.055	584.003
0.575	0.055	584.314
0.585	0.055	584.611
0.595	0.055	584.896
0.605	0.055	585.169
0.615	0.055	585.431
0.625	0.055	585.682
0.635	0.055	585.922
0.645	0.055	586.152
0.655	0.055	586.372
0.665	0.055	586.583
0.675	0.055	586.785
0.685	0.055	586.978
0.695	0.055	587.162
0.705	0.055	587.339
0.715	0.055	587.507
0.725	0.055	587.667
0.735	0.055	587.82
0.745	0.055	587.966
0.755	0.055	588.105
0.765	0.055	588.237
0.775	0.055	588.362
0.785	0.055	588.48
0.795	0.055	588.593
0.805	0.055	588.698
0.815	0.055	588.798
0.825	0.055	588.892
0.835	0.055	588.98
0.845	0.055	589.062
0.855	0.055	589.139
0.865	0.055	589.21
0.875	0.055	589.276
0.885	0.055	589.336
0.895	0.055	589.391
0.905	0.055	589.441
0.915	0.055	589.486
0.925	0.055	589.525
0.935	0.055	589.56
0.945	0.055	589.59
0.955	0.055	589.614
0.965	0.055	589.634
0.975	0.055	589.648
0.985	0.055	589.658
0.995	0.055	589.663

0.005	0.065	314.834
0.015	0.065	343.755
0.025	0.065	370.693
0.035	0.065	394.931
0.045	0.065	416.237
0.055	0.065	434.705
0.065	0.065	450.606
0.075	0.065	464.271
0.085	0.065	476.034
0.095	0.065	486.196
0.105	0.065	495.019
0.115	0.065	502.721
0.125	0.065	509.485
0.135	0.065	515.458
0.145	0.065	520.764
0.155	0.065	525.502
0.165	0.065	529.755
0.175	0.065	533.59
0.185	0.065	537.065
0.195	0.065	540.227
0.205	0.065	543.114
0.215	0.065	545.761
0.225	0.065	548.195
0.235	0.065	550.442
0.245	0.065	552.521
0.255	0.065	554.449
0.265	0.065	556.244
0.275	0.065	557.917
0.285	0.065	559.481
0.295	0.065	560.945
0.305	0.065	562.319
0.315	0.065	563.61
0.325	0.065	564.826
0.335	0.065	565.973
0.345	0.065	567.055
0.355	0.065	568.079
0.365	0.065	569.048
0.375	0.065	569.967
0.385	0.065	570.839
0.395	0.065	571.667
0.405	0.065	572.454
0.415	0.065	573.204
0.425	0.065	573.917
0.435	0.065	574.598
0.445	0.065	575.246
0.455	0.065	575.866
0.465	0.065	576.457
0.475	0.065	577.022
0.485	0.065	577.562
0.495	0.065	578.079
0.505	0.065	578.573
0.515	0.065	579.046
0.525	0.065	579.499
0.535	0.065	579.932
0.545	0.065	580.348
0.555	0.065	580.746
0.565	0.065	581.127
0.575	0.065	581.493
0.585	0.065	581.843
0.595	0.065	582.179
0.605	0.065	582.5
0.615	0.065	582.808
0.625	0.065	583.104
0.635	0.065	583.387
0.645	0.065	583.658
0.655	0.065	583.917
0.665	0.065	584.166
0.675	0.065	584.403
0.685	0.065	584.631
0.695	0.065	584.848
0.705	0.065	585.056
0.715	0.065	585.254
0.725	0.065	585.443
0.735	0.065	585.624
0.745	0.065	585.795
0.755	0.065	585.959
0.765	0.065	586.114
0.775	0.065	586.261
0.785	0.065	586.401
0.795	0.065	586.534
0.805	0.065	586.658
0.815	0.065	586.776
0.825	0.065	586.887
0.835	0.065	586.99
0.845	0.065	587.087
0.855	0.065	587.178
0.865	0.065	587.262
0.875	0.065	587.339
0.885	0.065	587.41
0.895	0.065	587.475
0.905	0.065	587.534
0.915	0.065	587.587
0.925	0.065	587.633
0.935	0.065	587.674
0.945	0.065	587.709
0.955	0.065	587.738
0.965	0.065	587.761
0.975	0.065	587.778
0.985	0.065	587.79
0.995	0.065	587.796

0.005	0.075	312.847
0.015	0.075	338.065
0.025	0.075	361.971
0.035	0.075	383.999
0.045	0.075	403.871
0.055	0.075	421.544
0.065	0.075	437.127
0.075	0.075	450.806
0.085	0.075	462.802
0.095	0.075	473.333
0.105	0.075	482.601
0.115	0.075	490.787
0.125	0.075	498.046
0.135	0.075	504.511
0.145	0.075	510.295
0.155	0.075	515.491
0.165	0.075	520.18
0.175	0.075	524.428
0.185	0.075	528.292
0.195	0.075	531.819
0.205	0.075	535.051
0.215	0.075	538.021
0.225	0.075	540.759
0.235	0.075	543.29
0.245	0.075	545.637
0.255	0.075	547.818
0.265	0.075	549.851
0.275	0.075	551.748
0.285	0.075	553.523
0.295	0.075	555.188
0.305	0.075	556.751
0.315	0.075	558.221
0.325	0.075	559.606
0.335	0.075	560.914
0.345	0.075	562.149
0.355	0.075	563.318
0.365	0.075	564.425
0.375	0.075	565.475
0.385	0.075	566.472
0.395	0.075	567.42
0.405	0.075	568.321
0.415	0.075	569.179
0.425	0.075	569.996
0.435	0.075	570.775
0.445	0.075	571.519
0.455	0.075	572.229
0.465	0.075	572.907
0.475	0.075	573.555
0.485	0.075	574.174
0.495	0.075	574.767
0.505	0.075	575.334
0.515	0.075	575.877
0.525	0.075	576.397
0.535	0.075	576.895
0.545	0.075	577.372
0.555	0.075	577.829
0.565	0.075	578.267
0.575	0.075	578.687
0.585	0.075	579.089
0.595	0.075	579.475
0.605	0.075	579.845
0.615	0.075	580.199
0.625	0.075	580.538
0.635	0.075	580.863
0.645	0.075	581.175
0.655	0.075	581.473
0.665	0.075	581.759
0.675	0.075	582.032
0.685	0.075	582.294
0.695	0.075	582.543
0.705	0.075	582.782
0.715	0.075	583.01
0.725	0.075	583.228
0.735	0.075	583.435
0.745	0.075	583.633
0.755	0.075	583.821
0.765	0.075	583.999
0.775	0.075	584.169
0.785	0.075	584.33
0.795	0.075	584.482
0.805	0.075	584.625
0.815	0.075	584.761
0.825	0.075	584.888
0.835	0.075	585.007
0.845	0.075	585.119
0.855	0.075	585.223
0.865	0.075	585.319
0.875	0.075	585.409
0.885	0.075	585.49
0.895	0.075	585.565
0.905	0.075	585.633
0.915	0.075	585.693
0.925	0.075	585.747
0.935	0.075	585.794
0.945	0.075	585.834
0.955	0.075	585.867
0.965	0.075	585.894
0.975	0.075	585.914
0.985	0.075	585.927
0.995	0.075	585.934

0.005	0.085	311.337
0.015	0.085	333.688
0.025	0.085	355.129
0.035	0.085	375.222
0.045	0.085	393.704
0.055	0.085	410.474
0.065	0.085	425.55
0.075	0.085	439.026
0.085	0.085	451.036
0.095	0.085	461.732
0.105	0.085	471.266
0.115	0.085	479.779
0.125	0.085	487.401
0.135	0.085	494.246
0.145	0.085	500.413
0.155	0.085	505.988
0.165	0.085	511.046
0.175	0.085	515.651
0.185	0.085	519.856
0.195	0.085	523.708
0.205	0.085	527.249
0.215	0.085	530.512
0.225	0.085	533.528
0.235	0.085	536.323
0.245	0.085	538.919
0.255	0.085	541.337
0.265	0.085	543.592
0.275	0.085	545.701
0.285	0.085	547.677
0.295	0.085	549.531
0.305	0.085	551.275
0.315	0.085	552.916
0.325	0.085	554.465
0.335	0.085	555.927
0.345	0.085	557.309
0.355	0.085	558.619
0.365	0.085	559.859
0.375	0.085	561.037
0.385	0.085	562.155
0.395	0.085	563.219
0.405	0.085	564.231
0.415	0.085	565.194
0.425	0.085	566.113
0.435	0.085	566.989
0.445	0.085	567.825
0.455	0.085	568.624
0.465	0.085	569.387
0.475	0.085	570.116
0.485	0.085	570.814
0.495	0.085	571.481
0.505	0.085	572.12
0.515	0.085	572.732
0.525	0.085	573.317
0.535	0.085	573.878
0.545	0.085	574.416
0.555	0.085	574.931
0.565	0.085	575.425
0.575	0.085	575.899
0.585	0.085	576.352
0.595	0.085	576.787
0.605	0.085	577.204
0.615	0.085	577.604
0.625	0.085	577.987
0.635	0.085	578.354
0.645	0.085	578.705
0.655	0.085	579.042
0.665	0.085	579.364
0.675	0.085	579.673
0.685	0.085	579.968
0.695	0.085	580.25
0.705	0.085	580.52
0.715	0.085	580.777
0.725	0.085	581.023
0.735	0.085	581.257
0.745	0.085	581.48
0.755	0.085	581.692
0.765	0.085	581.894
0.775	0.085	582.085
0.785	0.085	582.267
0.795	0.085	582.439
0.805	0.085	582.601
0.815	0.085	582.754
0.825	0.085	582.898
0.835	0.085	583.032
0.845	0.085	583.158
0.855	0.085	583.276
0.865	0.085	583.385
0.875	0.085	583.485
0.885	0.085	583.578
0.895	0.085	583.662
0.905	0.085	583.739
0.915	0.085	583.807
0.925	0.085	583.868
0.935	0.085	583.921
0.945	0.085	583.966
0.955	0.085	584.004
0.965	0.085	584.034
0.975	0.085	584.056
0.985	0.085	584.071
0.995	0.085	584.079

0.005	0.095	310.15
0.015	0.095	330.221
0.025	0.095	349.635
0.035	0.095	368.055
0.045	0.095	385.249
0.055	0.095	401.099
0.065	0.095	415.574
0.075	0.095	428.71
0.085	0.095	440.583
0.095	0.095	451.294
0.105	0.095	460.951
0.115	0.095	469.663
0.125	0.095	477.534
0.135	0.095	484.658
0.145	0.095	491.122
0.155	0.095	497.003
0.165	0.095	502.367
0.175	0.095	507.272
0.185	0.095	511.772
0.195	0.095	515.909
0.205	0.095	519.725
0.215	0.095	523.251
0.225	0.095	526.52
0.235	0.095	529.555
0.245	0.095	532.381
0.255	0.095	535.016
0.265	0.095	537.48
0.275	0.095	539.787
0.285	0.095	541.952
0.295	0.095	543.986
0.305	0.095	545.901
0.315	0.095	547.705
0.325	0.095	549.409
0.335	0.095	551.019
0.345	0.095	552.543
0.355	0.095	553.987
0.365	0.095	555.357
0.375	0.095	556.657
0.385	0.095	557.893
0.395	0.095	559.069
0.405	0.095	560.189
0.415	0.095	561.255
0.425	0.095	562.273
0.435	0.095	563.243
0.445	0.095	564.169
0.455	0.095	565.054
0.465	0.095	565.9
0.475	0.095	566.709
0.485	0.095	567.483
0.495	0.095	568.224
0.505	0.095	568.933
0.515	0.095	569.612
0.525	0.095	570.262
0.535	0.095	570.886
0.545	0.095	571.483
0.555	0.095	572.055
0.565	0.095	572.604
0.575	0.095	573.13
0.585	0.095	573.635
0.595	0.095	574.118
0.605	0.095	574.582
0.615	0.095	575.026
0.625	0.095	575.452
0.635	0.095	575.86
0.645	0.095	576.251
0.655	0.095	576.625
0.665	0.095	576.984
0.675	0.095	577.327
0.685	0.095	577.656
0.695	0.095	577.969
0.705	0.095	578.269
0.715	0.095	578.556
0.725	0.095	578.829
0.735	0.095	579.09
0.745	0.095	579.338
0.755	0.095	579.574
0.765	0.095	579.799
0.775	0.095	580.012
0.785	0.095	580.214
0.795	0.095	580.405
0.805	0.095	580.586
0.815	0.095	580.756
0.825	0.095	580.916
0.835	0.095	581.066
0.845	0.095	581.207
0.855	0.095	581.337
0.865	0.095	581.459
0.875	0.095	581.571
0.885	0.095	581.674
0.895	0.095	581.768
0.905	0.095	581.853
0.915	0.095	581.929
0.925	0.095	581.996
0.935	0.095	582.055
0.945	0.095	582.106
0.955	0.095	582.148
0.965	0.095	582.181
0.975	0.095	582.206
0.985	0.095	582.223
0.995	0.095	582.231

0.005	0.105	309.193
0.015	0.105	327.409
0.025	0.105	345.137
0.035	0.105	362.112
0.045	0.105	378.139
0.055	0.105	393.099
0.065	0.105	406.938
0.075	0.105	419.657
0.085	0.105	431.293
0.095	0.105	441.909
0.105	0.105	451.581
0.115	0.105	460.388
0.125	0.105	468.412
0.135	0.105	475.731
0.145	0.105	482.416
0.155	0.105	488.534
0.165	0.105	494.145
0.175	0.105	499.3
0.185	0.105	504.049
0.195	0.105	508.433
0.205	0.105	512.489
0.215	0.105	516.249
0.225	0.105	519.743
0.235	0.105	522.997
0.245	0.105	526.032
0.255	0.105	528.869
0.265	0.105	531.525
0.275	0.105	534.017
0.285	0.105	536.358
0.295	0.105	538.561
0.305	0.105	540.637
0.315	0.105	542.596
0.325	0.105	544.447
0.335	0.105	546.198
0.345	0.105	547.857
0.355	0.105	549.431
0.365	0.105	550.924
0.375	0.105	552.343
0.385	0.105	553.692
0.395	0.105	554.976
0.405	0.105	556.2
0.415	0.105	557.366
0.425	0.105	558.479
0.435	0.105	559.541
0.445	0.105	560.555
0.455	0.105	561.524
0.465	0.105	562.451
0.475	0.105	563.338
0.485	0.105	564.186
0.495	0.105	564.998
0.505	0.105	565.776
0.515	0.105	566.521
0.525	0.105	567.235
0.535	0.105	567.919
0.545	0.105	568.574
0.555	0.105	569.203
0.565	0.105	569.806
0.575	0.105	570.384
0.585	0.105	570.938
0.595	0.105	571.469
0.605	0.105	571.978
0.615	0.105	572.467
0.625	0.105	572.935
0.635	0.105	573.383
0.645	0.105	573.813
0.655	0.105	574.225
0.665	0.105	574.619
0.675	0.105	574.997
0.685	0.105	575.358
0.695	0.105	575.703
0.705	0.105	576.033
0.715	0.105	576.348
0.725	0.105	576.648
0.735	0.105	576.935
0.745	0.105	577.208
0.755	0.105	577.468
0.765	0.105	577.715
0.775	0.105	577.95
0.785	0.105	578.172
0.795	0.105	578.383
0.805	0.105	578.581
0.815	0.105	578.769
0.825	0.105	578.945
0.835	0.105	579.11
0.845	0.105	579.264
0.855	0.105	579.408
0.865	0.105	579.542
0.875	0.105	579.665
0.885	0.105	579.779
0.895	0.105	579.882
0.905	0.105	579.975
0.915	0.105	580.059
0.925	0.105	580.134
0.935	0.105	580.199
0.945	0.105	580.254
0.955	0.105	580.3
0.965	0.105	580.337
0.975	0.105	580.365
0.985	0.105	580.383
0.995	0.105	580.393

0.005	0.115	308.404
0.015	0.115	325.085
0.025	0.115	341.393
0.035	0.115	357.118
0.045	0.115	372.097
0.055	0.115	386.219
0.065	0.115	399.422
0.075	0.115	411.686
0.085	0.115	423.024
0.095	0.115	433.47
0.105	0.115	443.074
0.115	0.115	451.896
0.125	0.115	459.996
0.135	0.115	467.437
0.145	0.115	474.277
0.155	0.115	480.573
0.165	0.115	486.377
0.175	0.115	491.736
0.185	0.115	496.692
0.195	0.115	501.285
0.205	0.115	505.548
0.215	0.115	509.513
0.225	0.115	513.208
0.235	0.115	516.657
0.245	0.115	519.881
0.255	0.115	522.901
0.265	0.115	525.734
0.275	0.115	528.396
0.285	0.115	530.901
0.295	0.115	533.262
0.305	0.115	535.489
0.315	0.115	537.594
0.325	0.115	539.585
0.335	0.115	541.47
0.345	0.115	543.257
0.355	0.115	544.954
0.365	0.115	546.565
0.375	0.115	548.098
0.385	0.115	549.556
0.395	0.115	550.944
0.405	0.115	552.268
0.415	0.115	553.531
0.425	0.115	554.736
0.435	0.115	555.886
0.445	0.115	556.986
0.455	0.115	558.037
0.465	0.115	559.042
0.475	0.115	560.004
0.485	0.115	560.925
0.495	0.115	561.807
0.505	0.115	562.652
0.515	0.115	563.461
0.525	0.115	564.237
0.535	0.115	564.98
0.545	0.115	565.693
0.555	0.115	566.377
0.565	0.115	567.032
0.575	0.115	567.661
0.585	0.115	568.264
0.595	0.115	568.842
0.605	0.115	569.396
0.615	0.115	569.928
0.625	0.115	570.437
0.635	0.115	570.926
0.645	0.115	571.394
0.655	0.115	571.842
0.665	0.115	572.271
0.675	0.115	572.682
0.685	0.115	573.076
0.695	0.115	573.452
0.705	0.115	573.811
0.715	0.115	574.154
0.725	0.115	574.482
0.735	0.115	574.794
0.745	0.115	575.092
0.755	0.115	575.375
0.765	0.115	575.645
0.775	0.115	575.9
0.785	0.115	576.143
0.795	0.115	576.372
0.805	0.115	576.588
0.815	0.115	576.793
0.825	0.115	576.984
0.835	0.115	577.165
0.845	0.115	577.333
0.855	0.115	577.49
0.865	0.115	577.635
0.875	0.115	577.77
0.885	0.115	577.893
0.895	0.115	578.006
0.905	0.115	578.108
0.915	0.115	578.2
0.925	0.115	578.281
0.935	0.115	578.352
0.945	0.115	578.412
0.955	0.115	578.462
0.965	0.115	578.503
0.975	0.115	578.533
0.985	0.115	578.553
0.995	0.115	578.563

0.005	0.125	307.744
0.015	0.125	323.133
0.025	0.125	338.231
0.035	0.125	352.869
0.045	0.125	366.912
0.055	0.125	380.258
0.065	0.125	392.845
0.075	0.125	404.643
0.085	0.125	415.646
0.095	0.125	425.872
0.105	0.125	435.351
0.115	0.125	444.125
0.125	0.125	452.24
0.135	0.125	459.743
0.145	0.125	466.682
0.155	0.125	473.105
0.165	0.125	479.055
0.175	0.125	484.573
0.185	0.125	489.699
0.195	0.125	494.466
0.205	0.125	498.906
0.215	0.125	503.048
0.225	0.125	506.919
0.235	0.125	510.541
0.245	0.125	513.935
0.255	0.125	517.121
0.265	0.125	520.115
0.275	0.125	522.934
0.285	0.125	525.59
0.295	0.125	528.097
0.305	0.125	530.465
0.315	0.125	532.706
0.325	0.125	534.828
0.335	0.125	536.839
0.345	0.125	538.749
0.355	0.125	540.562
0.365	0.125	542.286
0.375	0.125	543.927
0.385	0.125	545.489
0.395	0.125	546.978
0.405	0.125	548.398
0.415	0.125	549.753
0.425	0.125	551.047
0.435	0.125	552.283
0.445	0.125	553.465
0.455	0.125	554.595
0.465	0.125	555.677
0.475	0.125	556.712
0.485	0.125	557.704
0.495	0.125	558.653
0.505	0.125	559.563
0.515	0.125	560.435
0.525	0.125	561.271
0.535	0.125	562.073
0.545	0.125	562.842
0.555	0.125	563.579
0.565	0.125	564.286
0.575	0.125	564.964
0.585	0.125	565.615
0.595	0.125	566.239
0.605	0.125	566.837
0.615	0.125	567.411
0.625	0.125	567.961
0.635	0.125	568.488
0.645	0.125	568.994
0.655	0.125	569.478
0.665	0.125	569.942
0.675	0.125	570.386
0.685	0.125	570.811
0.695	0.125	571.217
0.705	0.125	571.606
0.715	0.125	571.977
0.725	0.125	572.331
0.735	0.125	572.668
0.745	0.125	572.99
0.755	0.125	573.296
0.765	0.125	573.588
0.775	0.125	573.864
0.785	0.125	574.126
0.795	0.125	574.374
0.805	0.125	574.608
0.815	0.125	574.829
0.825	0.125	575.036
0.835	0.125	575.231
0.845	0.125	575.413
0.855	0.125	575.583
0.865	0.125	575.74
0.875	0.125	575.886
0.885	0.125	576.019
0.895	0.125	576.141
0.905	0.125	576.252
0.915	0.125	576.351
0.925	0.125	576.438
0.935	0.125	576.515
0.945	0.125	576.58
0.955	0.125	576.635
0.965	0.125	576.678
0.975	0.125	576.711
0.985	0.125	576.732
0.995	0.125	576.743

0.005	0.135	307.183
0.015	0.135	321.471
0.025	0.135	335.528
0.035	0.135	349.217
0.045	0.135	362.422
0.055	0.135	375.057
0.065	0.135	387.059
0.075	0.135	398.393
0.085	0.135	409.045
0.095	0.135	419.02
0.105	0.135	428.334
0.115	0.135	437.015
0.125	0.135	445.095
0.135	0.135	452.612
0.145	0.135	459.604
0.155	0.135	466.109
0.165	0.135	472.164
0.175	0.135	477.804
0.185	0.135	483.064
0.195	0.135	487.974
0.205	0.135	492.562
0.215	0.135	496.855
0.225	0.135	500.878
0.235	0.135	504.652
0.245	0.135	508.197
0.255	0.135	511.532
0.265	0.135	514.672
0.275	0.135	517.633
0.285	0.135	520.428
0.295	0.135	523.07
0.305	0.135	525.569
0.315	0.135	527.937
0.325	0.135	530.181
0.335	0.135	532.312
0.345	0.135	534.335
0.355	0.135	536.26
0.365	0.135	538.09
0.375	0.135	539.834
0.385	0.135	541.495
0.395	0.135	543.08
0.405	0.135	544.592
0.415	0.135	546.036
0.425	0.135	547.416
0.435	0.135	548.735
0.445	0.135	549.996
0.455	0.135	551.203
0.465	0.135	552.358
0.475	0.135	553.464
0.485	0.135	554.524
0.495	0.135	555.539
0.505	0.135	556.513
0.515	0.135	557.446
0.525	0.135	558.34
0.535	0.135	559.198
0.545	0.135	560.022
0.555	0.135	560.811
0.565	0.135	561.568
0.575	0.135	562.295
0.585	0.135	562.992
0.595	0.135	563.661
0.605	0.135	564.302
0.615	0.135	564.918
0.625	0.135	565.508
0.635	0.135	566.073
0.645	0.135	566.616
0.655	0.135	567.135
0.665	0.135	567.633
0.675	0.135	568.109
0.685	0.135	568.565
0.695	0.135	569.001
0.705	0.135	569.418
0.715	0.135	569.816
0.725	0.135	570.196
0.735	0.135	570.559
0.745	0.135	570.904
0.755	0.135	571.233
0.765	0.135	571.545
0.775	0.135	571.842
0.785	0.135	572.124
0.795	0.135	572.39
0.805	0.135	572.641
0.815	0.135	572.878
0.825	0.135	573.101
0.835	0.135	573.311
0.845	0.135	573.506
0.855	0.135	573.688
0.865	0.135	573.857
0.875	0.135	574.014
0.885	0.135	574.157
0.895	0.135	574.288
0.905	0.135	574.407
0.915	0.135	574.513
0.925	0.135	574.607
0.935	0.135	574.689
0.945	0.135	574.76
0.955	0.135	574.818
0.965	0.135	574.865
0.975	0.135	574.9
0.985	0.135	574.923
0.995	0.135	574.935

0.005	0.145	306.702
0.015	0.145	320.041
0.025	0.145	333.194
0.035	0.145	346.047
0.045	0.145	358.504
0.055	0.145	370.487
0.065	0.145	381.94
0.075	0.145	392.825
0.085	0.145	403.122
0.095	0.145	412.828
0.105	0.145	421.95
0.115	0.145	430.504
0.125	0.145	438.514
0.135	0.145	446.007
0.145	0.145	453.013
0.155	0.145	459.563
0.165	0.145	465.687
0.175	0.145	471.416
0.185	0.145	476.779
0.195	0.145	481.803
0.205	0.145	486.513
0.215	0.145	490.933
0.225	0.145	495.087
0.235	0.145	498.993
0.245	0.145	502.671
0.255	0.145	506.137
0.265	0.145	509.408
0.275	0.145	512.498
0.285	0.145	515.419
0.295	0.145	518.185