title = Problem-4 Plot
variables = x,y,temp
zone i=100, j=100, f=point
0.005	0.005	601.992
0.015	0.005	601.992
0.025	0.005	601.992
0.035	0.005	601.992
0.045	0.005	601.992
0.055	0.005	601.992
0.065	0.005	601.992
0.075	0.005	601.992
0.085	0.005	601.992
0.095	0.005	601.992
0.105	0.005	601.992
0.115	0.005	601.992
0.125	0.005	601.992
0.135	0.005	601.992
0.145	0.005	601.992
0.155	0.005	601.992
0.165	0.005	601.992
0.175	0.005	601.992
0.185	0.005	601.992
0.195	0.005	601.992
0.205	0.005	601.992
0.215	0.005	601.992
0.225	0.005	601.992
0.235	0.005	601.992
0.245	0.005	601.992
0.255	0.005	601.992
0.265	0.005	601.992
0.275	0.005	601.992
0.285	0.005	601.992
0.295	0.005	601.992
0.305	0.005	601.992
0.315	0.005	601.992
0.325	0.005	601.992
0.335	0.005	601.992
0.345	0.005	601.992
0.355	0.005	601.992
0.365	0.005	601.992
0.375	0.005	601.992
0.385	0.005	601.992
0.395	0.005	601.992
0.405	0.005	601.992
0.415	0.005	601.992
0.425	0.005	601.992
0.435	0.005	601.992
0.445	0.005	601.992
0.455	0.005	601.992
0.465	0.005	601.992
0.475	0.005	601.992
0.485	0.005	601.992
0.495	0.005	601.992
0.505	0.005	601.992
0.515	0.005	601.992
0.525	0.005	601.992
0.535	0.005	601.992
0.545	0.005	601.992
0.555	0.005	601.992
0.565	0.005	601.992
0.575	0.005	601.992
0.585	0.005	601.992
0.595	0.005	601.992
0.605	0.005	601.992
0.615	0.005	601.992
0.625	0.005	601.992
0.635	0.005	601.992
0.645	0.005	601.992
0.655	0.005	601.992
0.665	0.005	601.992
0.675	0.005	601.992
0.685	0.005	601.992
0.695	0.005	601.992
0.705	0.005	601.992
0.715	0.005	601.992
0.725	0.005	601.992
0.735	0.005	601.992
0.745	0.005	601.992
0.755	0.005	601.992
0.765	0.005	601.992
0.775	0.005	601.992
0.785	0.005	601.992
0.795	0.005	601.992
0.805	0.005	601.992
0.815	0.005	601.992
0.825	0.005	601.992
0.835	0.005	601.992
0.845	0.005	601.992
0.855	0.005	601.992
0.865	0.005	601.992
0.875	0.005	601.992
0.885	0.005	601.992
0.895	0.005	601.992
0.905	0.005	601.992
0.915	0.005	601.992
0.925	0.005	601.992
0.935	0.005	601.992
0.945	0.005	601.992
0.955	0.005	601.992
0.965	0.005	601.992
0.975	0.005	601.992
0.985	0.005	601.992
0.995	0.005	601.992

0.005	0.015	605.976
0.015	0.015	605.976
0.025	0.015	605.976
0.035	0.015	605.976
0.045	0.015	605.976
0.055	0.015	605.976
0.065	0.015	605.976
0.075	0.015	605.976
0.085	0.015	605.976
0.095	0.015	605.976
0.105	0.015	605.976
0.115	0.015	605.976
0.125	0.015	605.976
0.135	0.015	605.976
0.145	0.015	605.976
0.155	0.015	605.976
0.165	0.015	605.976
0.175	0.015	605.976
0.185	0.015	605.976
0.195	0.015	605.976
0.205	0.015	605.976
0.215	0.015	605.976
0.225	0.015	605.976
0.235	0.015	605.976
0.245	0.015	605.976
0.255	0.015	605.976
0.265	0.015	605.976
0.275	0.015	605.976
0.285	0.015	605.976
0.295	0.015	605.976
0.305	0.015	605.976
0.315	0.015	605.976
0.325	0.015	605.976
0.335	0.015	605.976
0.345	0.015	605.976
0.355	0.015	605.976
0.365	0.015	605.976
0.375	0.015	605.976
0.385	0.015	605.976
0.395	0.015	605.976
0.405	0.015	605.976
0.415	0.015	605.976
0.425	0.015	605.976
0.435	0.015	605.976
0.445	0.015	605.976
0.455	0.015	605.976
0.465	0.015	605.976
0.475	0.015	605.976
0.485	0.015	605.976
0.495	0.015	605.976
0.505	0.015	605.976
0.515	0.015	605.976
0.525	0.015	605.976
0.535	0.015	605.976
0.545	0.015	605.976
0.555	0.015	605.976
0.565	0.015	605.976
0.575	0.015	605.976
0.585	0.015	605.976
0.595	0.015	605.976
0.605	0.015	605.976
0.615	0.015	605.976
0.625	0.015	605.976
0.635	0.015	605.976
0.645	0.015	605.976
0.655	0.015	605.976
0.665	0.015	605.976
0.675	0.015	605.976
0.685	0.015	605.976
0.695	0.015	605.976
0.705	0.015	605.976
0.715	0.015	605.976
0.725	0.015	605.976
0.735	0.015	605.976
0.745	0.015	605.976
0.755	0.015	605.976
0.765	0.015	605.976
0.775	0.015	605.976
0.785	0.015	605.976
0.795	0.015	605.976
0.805	0.015	605.976
0.815	0.015	605.976
0.825	0.015	605.976
0.835	0.015	605.976
0.845	0.015	605.976
0.855	0.015	605.976
0.865	0.015	605.976
0.875	0.015	605.976
0.885	0.015	605.976
0.895	0.015	605.976
0.905	0.015	605.976
0.915	0.015	605.976
0.925	0.015	605.976
0.935	0.015	605.976
0.945	0.015	605.976
0.955	0.015	605.976
0.965	0.015	605.976
0.975	0.015	605.976
0.985	0.015	605.976
0.995	0.015	605.976

0.005	0.025	609.96
0.015	0.025	609.96
0.025	0.025	609.96
0.035	0.025	609.96
0.045	0.025	609.96
0.055	0.025	609.96
0.065	0.025	609.96
0.075	0.025	609.96
0.085	0.025	609.96
0.095	0.025	609.96
0.105	0.025	609.96
0.115	0.025	609.96
0.125	0.025	609.96
0.135	0.025	609.96
0.145	0.025	609.96
0.155	0.025	609.96
0.165	0.025	609.96
0.175	0.025	609.96
0.185	0.025	609.96
0.195	0.025	609.96
0.205	0.025	609.96
0.215	0.025	609.96
0.225	0.025	609.96
0.235	0.025	609.96
0.245	0.025	609.96
0.255	0.025	609.96
0.265	0.025	609.96
0.275	0.025	609.96
0.285	0.025	609.96
0.295	0.025	609.96
0.305	0.025	609.96
0.315	0.025	609.96
0.325	0.025	609.96
0.335	0.025	609.96
0.345	0.025	609.96
0.355	0.025	609.96
0.365	0.025	609.96
0.375	0.025	609.96
0.385	0.025	609.96
0.395	0.025	609.96
0.405	0.025	609.96
0.415	0.025	609.96
0.425	0.025	609.96
0.435	0.025	609.96
0.445	0.025	609.96
0.455	0.025	609.96
0.465	0.025	609.96
0.475	0.025	609.96
0.485	0.025	609.96
0.495	0.025	609.96
0.505	0.025	609.96
0.515	0.025	609.96
0.525	0.025	609.96
0.535	0.025	609.96
0.545	0.025	609.96
0.555	0.025	609.96
0.565	0.025	609.96
0.575	0.025	609.96
0.585	0.025	609.96
0.595	0.025	609.96
0.605	0.025	609.96
0.615	0.025	609.96
0.625	0.025	609.96
0.635	0.025	609.96
0.645	0.025	609.96
0.655	0.025	609.96
0.665	0.025	609.96
0.675	0.025	609.96
0.685	0.025	609.96
0.695	0.025	609.96
0.705	0.025	609.96
0.715	0.025	609.96
0.725	0.025	609.96
0.735	0.025	609.96
0.745	0.025	609.96
0.755	0.025	609.96
0.765	0.025	609.96
0.775	0.025	609.96
0.785	0.025	609.96
0.795	0.025	609.96
0.805	0.025	609.96
0.815	0.025	609.96
0.825	0.025	609.961
0.835	0.025	609.961
0.845	0.025	609.961
0.855	0.025	609.961
0.865	0.025	609.961
0.875	0.025	609.961
0.885	0.025	609.961
0.895	0.025	609.961
0.905	0.025	609.961
0.915	0.025	609.961
0.925	0.025	609.961
0.935	0.025	609.961
0.945	0.025	609.961
0.955	0.025	609.961
0.965	0.025	609.961
0.975	0.025	609.961
0.985	0.025	609.961
0.995	0.025	609.961

0.005	0.035	613.944
0.015	0.035	613.944
0.025	0.035	613.944
0.035	0.035	613.944
0.045	0.035	613.944
0.055	0.035	613.944
0.065	0.035	613.944
0.075	0.035	613.944
0.085	0.035	613.944
0.095	0.035	613.944
0.105	0.035	613.944
0.115	0.035	613.944
0.125	0.035	613.944
0.135	0.035	613.944
0.145	0.035	613.944
0.155	0.035	613.944
0.165	0.035	613.944
0.175	0.035	613.944
0.185	0.035	613.944
0.195	0.035	613.944
0.205	0.035	613.944
0.215	0.035	613.944
0.225	0.035	613.944
0.235	0.035	613.944
0.245	0.035	613.944
0.255	0.035	613.944
0.265	0.035	613.944
0.275	0.035	613.944
0.285	0.035	613.944
0.295	0.035	613.944
0.305	0.035	613.944
0.315	0.035	613.944
0.325	0.035	613.944
0.335	0.035	613.944
0.345	0.035	613.944
0.355	0.035	613.944
0.365	0.035	613.944
0.375	0.035	613.944
0.385	0.035	613.944
0.395	0.035	613.944
0.405	0.035	613.944
0.415	0.035	613.944
0.425	0.035	613.944
0.435	0.035	613.944
0.445	0.035	613.944
0.455	0.035	613.944
0.465	0.035	613.944
0.475	0.035	613.944
0.485	0.035	613.944
0.495	0.035	613.944
0.505	0.035	613.944
0.515	0.035	613.944
0.525	0.035	613.944
0.535	0.035	613.944
0.545	0.035	613.944
0.555	0.035	613.944
0.565	0.035	613.944
0.575	0.035	613.944
0.585	0.035	613.944
0.595	0.035	613.944
0.605	0.035	613.944
0.615	0.035	613.944
0.625	0.035	613.944
0.635	0.035	613.944
0.645	0.035	613.944
0.655	0.035	613.944
0.665	0.035	613.944
0.675	0.035	613.944
0.685	0.035	613.944
0.695	0.035	613.944
0.705	0.035	613.944
0.715	0.035	613.944
0.725	0.035	613.945
0.735	0.035	613.945
0.745	0.035	613.945
0.755	0.035	613.945
0.765	0.035	613.945
0.775	0.035	613.945
0.785	0.035	613.945
0.795	0.035	613.945
0.805	0.035	613.945
0.815	0.035	613.945
0.825	0.035	613.945
0.835	0.035	613.945
0.845	0.035	613.945
0.855	0.035	613.945
0.865	0.035	613.945
0.875	0.035	613.945
0.885	0.035	613.945
0.895	0.035	613.945
0.905	0.035	613.945
0.915	0.035	613.945
0.925	0.035	613.945
0.935	0.035	613.945
0.945	0.035	613.945
0.955	0.035	613.945
0.965	0.035	613.945
0.975	0.035	613.945
0.985	0.035	613.945
0.995	0.035	613.945

0.005	0.045	617.928
0.015	0.045	617.928
0.025	0.045	617.928
0.035	0.045	617.928
0.045	0.045	617.928
0.055	0.045	617.928
0.065	0.045	617.928
0.075	0.045	617.928
0.085	0.045	617.928
0.095	0.045	617.928
0.105	0.045	617.928
0.115	0.045	617.928
0.125	0.045	617.928
0.135	0.045	617.928
0.145	0.045	617.928
0.155	0.045	617.928
0.165	0.045	617.928
0.175	0.045	617.928
0.185	0.045	617.928
0.195	0.045	617.928
0.205	0.045	617.928
0.215	0.045	617.928
0.225	0.045	617.928
0.235	0.045	617.928
0.245	0.045	617.928
0.255	0.045	617.928
0.265	0.045	617.928
0.275	0.045	617.928
0.285	0.045	617.928
0.295	0.045	617.928
0.305	0.045	617.928
0.315	0.045	617.928
0.325	0.045	617.928
0.335	0.045	617.928
0.345	0.045	617.928
0.355	0.045	617.928
0.365	0.045	617.928
0.375	0.045	617.928
0.385	0.045	617.928
0.395	0.045	617.928
0.405	0.045	617.928
0.415	0.045	617.928
0.425	0.045	617.928
0.435	0.045	617.928
0.445	0.045	617.928
0.455	0.045	617.928
0.465	0.045	617.928
0.475	0.045	617.928
0.485	0.045	617.928
0.495	0.045	617.928
0.505	0.045	617.928
0.515	0.045	617.928
0.525	0.045	617.928
0.535	0.045	617.928
0.545	0.045	617.928
0.555	0.045	617.928
0.565	0.045	617.928
0.575	0.045	617.928
0.585	0.045	617.928
0.595	0.045	617.928
0.605	0.045	617.928
0.615	0.045	617.928
0.625	0.045	617.929
0.635	0.045	617.929
0.645	0.045	617.929
0.655	0.045	617.929
0.665	0.045	617.929
0.675	0.045	617.929
0.685	0.045	617.929
0.695	0.045	617.929
0.705	0.045	617.929
0.715	0.045	617.929
0.725	0.045	617.929
0.735	0.045	617.929
0.745	0.045	617.929
0.755	0.045	617.929
0.765	0.045	617.929
0.775	0.045	617.929
0.785	0.045	617.929
0.795	0.045	617.929
0.805	0.045	617.929
0.815	0.045	617.929
0.825	0.045	617.929
0.835	0.045	617.929
0.845	0.045	617.929
0.855	0.045	617.929
0.865	0.045	617.929
0.875	0.045	617.929
0.885	0.045	617.929
0.895	0.045	617.929
0.905	0.045	617.929
0.915	0.045	617.929
0.925	0.045	617.929
0.935	0.045	617.929
0.945	0.045	617.929
0.955	0.045	617.929
0.965	0.045	617.929
0.975	0.045	617.929
0.985	0.045	617.929
0.995	0.045	617.929

0.005	0.055	621.912
0.015	0.055	621.912
0.025	0.055	621.912
0.035	0.055	621.912
0.045	0.055	621.912
0.055	0.055	621.912
0.065	0.055	621.912
0.075	0.055	621.912
0.085	0.055	621.912
0.095	0.055	621.912
0.105	0.055	621.912
0.115	0.055	621.912
0.125	0.055	621.912
0.135	0.055	621.912
0.145	0.055	621.912
0.155	0.055	621.912
0.165	0.055	621.912
0.175	0.055	621.912
0.185	0.055	621.912
0.195	0.055	621.912
0.205	0.055	621.912
0.215	0.055	621.912
0.225	0.055	621.912
0.235	0.055	621.912
0.245	0.055	621.912
0.255	0.055	621.912
0.265	0.055	621.912
0.275	0.055	621.912
0.285	0.055	621.912
0.295	0.055	621.912
0.305	0.055	621.912
0.315	0.055	621.912
0.325	0.055	621.912
0.335	0.055	621.912
0.345	0.055	621.912
0.355	0.055	621.912
0.365	0.055	621.912
0.375	0.055	621.912
0.385	0.055	621.912
0.395	0.055	621.912
0.405	0.055	621.912
0.415	0.055	621.912
0.425	0.055	621.912
0.435	0.055	621.912
0.445	0.055	621.912
0.455	0.055	621.912
0.465	0.055	621.912
0.475	0.055	621.912
0.485	0.055	621.912
0.495	0.055	621.912
0.505	0.055	621.912
0.515	0.055	621.912
0.525	0.055	621.913
0.535	0.055	621.913
0.545	0.055	621.913
0.555	0.055	621.913
0.565	0.055	621.913
0.575	0.055	621.913
0.585	0.055	621.913
0.595	0.055	621.913
0.605	0.055	621.913
0.615	0.055	621.913
0.625	0.055	621.913
0.635	0.055	621.913
0.645	0.055	621.913
0.655	0.055	621.913
0.665	0.055	621.913
0.675	0.055	621.913
0.685	0.055	621.913
0.695	0.055	621.913
0.705	0.055	621.913
0.715	0.055	621.913
0.725	0.055	621.913
0.735	0.055	621.913
0.745	0.055	621.913
0.755	0.055	621.913
0.765	0.055	621.913
0.775	0.055	621.913
0.785	0.055	621.913
0.795	0.055	621.913
0.805	0.055	621.913
0.815	0.055	621.913
0.825	0.055	621.913
0.835	0.055	621.913
0.845	0.055	621.913
0.855	0.055	621.913
0.865	0.055	621.913
0.875	0.055	621.914
0.885	0.055	621.914
0.895	0.055	621.914
0.905	0.055	621.914
0.915	0.055	621.914
0.925	0.055	621.914
0.935	0.055	621.914
0.945	0.055	621.914
0.955	0.055	621.914
0.965	0.055	621.914
0.975	0.055	621.914
0.985	0.055	621.914
0.995	0.055	621.914

0.005	0.065	625.896
0.015	0.065	625.896
0.025	0.065	625.896
0.035	0.065	625.896
0.045	0.065	625.896
0.055	0.065	625.896
0.065	0.065	625.896
0.075	0.065	625.896
0.085	0.065	625.896
0.095	0.065	625.896
0.105	0.065	625.896
0.115	0.065	625.896
0.125	0.065	625.896
0.135	0.065	625.896
0.145	0.065	625.896
0.155	0.065	625.896
0.165	0.065	625.896
0.175	0.065	625.896
0.185	0.065	625.896
0.195	0.065	625.896
0.205	0.065	625.896
0.215	0.065	625.896
0.225	0.065	625.896
0.235	0.065	625.896
0.245	0.065	625.896
0.255	0.065	625.896
0.265	0.065	625.896
0.275	0.065	625.896
0.285	0.065	625.896
0.295	0.065	625.896
0.305	0.065	625.896
0.315	0.065	625.896
0.325	0.065	625.896
0.335	0.065	625.896
0.345	0.065	625.896
0.355	0.065	625.896
0.365	0.065	625.896
0.375	0.065	625.896
0.385	0.065	625.896
0.395	0.065	625.897
0.405	0.065	625.897
0.415	0.065	625.897
0.425	0.065	625.897
0.435	0.065	625.897
0.445	0.065	625.897
0.455	0.065	625.897
0.465	0.065	625.897
0.475	0.065	625.897
0.485	0.065	625.897
0.495	0.065	625.897
0.505	0.065	625.897
0.515	0.065	625.897
0.525	0.065	625.897
0.535	0.065	625.897
0.545	0.065	625.897
0.555	0.065	625.897
0.565	0.065	625.897
0.575	0.065	625.897
0.585	0.065	625.897
0.595	0.065	625.897
0.605	0.065	625.897
0.615	0.065	625.897
0.625	0.065	625.897
0.635	0.065	625.897
0.645	0.065	625.897
0.655	0.065	625.897
0.665	0.065	625.897
0.675	0.065	625.897
0.685	0.065	625.897
0.695	0.065	625.897
0.705	0.065	625.897
0.715	0.065	625.897
0.725	0.065	625.898
0.735	0.065	625.898
0.745	0.065	625.898
0.755	0.065	625.898
0.765	0.065	625.898
0.775	0.065	625.898
0.785	0.065	625.898
0.795	0.065	625.898
0.805	0.065	625.898
0.815	0.065	625.898
0.825	0.065	625.898
0.835	0.065	625.898
0.845	0.065	625.898
0.855	0.065	625.898
0.865	0.065	625.898
0.875	0.065	625.898
0.885	0.065	625.898
0.895	0.065	625.898
0.905	0.065	625.898
0.915	0.065	625.898
0.925	0.065	625.898
0.935	0.065	625.898
0.945	0.065	625.898
0.955	0.065	625.898
0.965	0.065	625.898
0.975	0.065	625.898
0.985	0.065	625.898
0.995	0.065	625.899

0.005	0.075	629.881
0.015	0.075	629.881
0.025	0.075	629.881
0.035	0.075	629.881
0.045	0.075	629.881
0.055	0.075	629.881
0.065	0.075	629.881
0.075	0.075	629.881
0.085	0.075	629.881
0.095	0.075	629.881
0.105	0.075	629.881
0.115	0.075	629.881
0.125	0.075	629.881
0.135	0.075	629.881
0.145	0.075	629.881
0.155	0.075	629.881
0.165	0.075	629.881
0.175	0.075	629.881
0.185	0.075	629.881
0.195	0.075	629.881
0.205	0.075	629.881
0.215	0.075	629.881
0.225	0.075	629.881
0.235	0.075	629.881
0.245	0.075	629.881
0.255	0.075	629.881
0.265	0.075	629.881
0.275	0.075	629.881
0.285	0.075	629.881
0.295	0.075	629.881
0.305	0.075	629.881
0.315	0.075	629.881
0.325	0.075	629.881
0.335	0.075	629.881
0.345	0.075	629.881
0.355	0.075	629.881
0.365	0.075	629.881
0.375	0.075	629.881
0.385	0.075	629.881
0.395	0.075	629.881
0.405	0.075	629.881
0.415	0.075	629.881
0.425	0.075	629.881
0.435	0.075	629.881
0.445	0.075	629.881
0.455	0.075	629.881
0.465	0.075	629.881
0.475	0.075	629.881
0.485	0.075	629.881
0.495	0.075	629.881
0.505	0.075	629.881
0.515	0.075	629.881
0.525	0.075	629.881
0.535	0.075	629.881
0.545	0.075	629.881
0.555	0.075	629.881
0.565	0.075	629.881
0.575	0.075	629.882
0.585	0.075	629.882
0.595	0.075	629.882
0.605	0.075	629.882
0.615	0.075	629.882
0.625	0.075	629.882
0.635	0.075	629.882
0.645	0.075	629.882
0.655	0.075	629.882
0.665	0.075	629.882
0.675	0.075	629.882
0.685	0.075	629.882
0.695	0.075	629.882
0.705	0.075	629.882
0.715	0.075	629.882
0.725	0.075	629.882
0.735	0.075	629.882
0.745	0.075	629.882
0.755	0.075	629.882
0.765	0.075	629.882
0.775	0.075	629.882
0.785	0.075	629.882
0.795	0.075	629.882
0.805	0.075	629.882
0.815	0.075	629.882
0.825	0.075	629.882
0.835	0.075	629.883
0.845	0.075	629.883
0.855	0.075	629.883
0.865	0.075	629.883
0.875	0.075	629.883
0.885	0.075	629.883
0.895	0.075	629.883
0.905	0.075	629.883
0.915	0.075	629.883
0.925	0.075	629.883
0.935	0.075	629.883
0.945	0.075	629.883
0.955	0.075	629.883
0.965	0.075	629.883
0.975	0.075	629.883
0.985	0.075	629.883
0.995	0.075	629.883

0.005	0.085	633.865
0.015	0.085	633.865
0.025	0.085	633.865
0.035	0.085	633.865
0.045	0.085	633.865
0.055	0.085	633.865
0.065	0.085	633.865
0.075	0.085	633.865
0.085	0.085	633.865
0.095	0.085	633.865
0.105	0.085	633.865
0.115	0.085	633.865
0.125	0.085	633.865
0.135	0.085	633.865
0.145	0.085	633.865
0.155	0.085	633.865
0.165	0.085	633.865
0.175	0.085	633.865
0.185	0.085	633.865
0.195	0.085	633.865
0.205	0.085	633.865
0.215	0.085	633.865
0.225	0.085	633.865
0.235	0.085	633.865
0.245	0.085	633.865
0.255	0.085	633.865
0.265	0.085	633.865
0.275	0.085	633.865
0.285	0.085	633.865
0.295	0.085	633.865
0.305	0.085	633.865
0.315	0.085	633.865
0.325	0.085	633.865
0.335	0.085	633.865
0.345	0.085	633.865
0.355	0.085	633.865
0.365	0.085	633.865
0.375	0.085	633.865
0.385	0.085	633.865
0.395	0.085	633.866
0.405	0.085	633.866
0.415	0.085	633.866
0.425	0.085	633.866
0.435	0.085	633.866
0.445	0.085	633.866
0.455	0.085	633.866
0.465	0.085	633.866
0.475	0.085	633.866
0.485	0.085	633.866
0.495	0.085	633.866
0.505	0.085	633.866
0.515	0.085	633.866
0.525	0.085	633.866
0.535	0.085	633.866
0.545	0.085	633.866
0.555	0.085	633.866
0.565	0.085	633.866
0.575	0.085	633.866
0.585	0.085	633.866
0.595	0.085	633.866
0.605	0.085	633.866
0.615	0.085	633.866
0.625	0.085	633.866
0.635	0.085	633.866
0.645	0.085	633.866
0.655	0.085	633.867
0.665	0.085	633.867
0.675	0.085	633.867
0.685	0.085	633.867
0.695	0.085	633.867
0.705	0.085	633.867
0.715	0.085	633.867
0.725	0.085	633.867
0.735	0.085	633.867
0.745	0.085	633.867
0.755	0.085	633.867
0.765	0.085	633.867
0.775	0.085	633.867
0.785	0.085	633.867
0.795	0.085	633.867
0.805	0.085	633.867
0.815	0.085	633.867
0.825	0.085	633.867
0.835	0.085	633.867
0.845	0.085	633.867
0.855	0.085	633.867
0.865	0.085	633.867
0.875	0.085	633.867
0.885	0.085	633.867
0.895	0.085	633.868
0.905	0.085	633.868
0.915	0.085	633.868
0.925	0.085	633.868
0.935	0.085	633.868
0.945	0.085	633.868
0.955	0.085	633.868
0.965	0.085	633.868
0.975	0.085	633.868
0.985	0.085	633.868
0.995	0.085	633.868

0.005	0.095	637.85
0.015	0.095	637.85
0.025	0.095	637.85
0.035	0.095	637.85
0.045	0.095	637.85
0.055	0.095	637.85
0.065	0.095	637.85
0.075	0.095	637.85
0.085	0.095	637.85
0.095	0.095	637.85
0.105	0.095	637.85
0.115	0.095	637.85
0.125	0.095	637.85
0.135	0.095	637.85
0.145	0.095	637.85
0.155	0.095	637.85
0.165	0.095	637.85
0.175	0.095	637.85
0.185	0.095	637.85
0.195	0.095	637.85
0.205	0.095	637.85
0.215	0.095	637.85
0.225	0.095	637.85
0.235	0.095	637.85
0.245	0.095	637.85
0.255	0.095	637.85
0.265	0.095	637.85
0.275	0.095	637.85
0.285	0.095	637.85
0.295	0.095	637.85
0.305	0.095	637.85
0.315	0.095	637.85
0.325	0.095	637.85
0.335	0.095	637.85
0.345	0.095	637.85
0.355	0.095	637.85
0.365	0.095	637.85
0.375	0.095	637.85
0.385	0.095	637.85
0.395	0.095	637.85
0.405	0.095	637.85
0.415	0.095	637.85
0.425	0.095	637.85
0.435	0.095	637.85
0.445	0.095	637.85
0.455	0.095	637.85
0.465	0.095	637.85
0.475	0.095	637.851
0.485	0.095	637.851
0.495	0.095	637.851
0.505	0.095	637.851
0.515	0.095	637.851
0.525	0.095	637.851
0.535	0.095	637.851
0.545	0.095	637.851
0.555	0.095	637.851
0.565	0.095	637.851
0.575	0.095	637.851
0.585	0.095	637.851
0.595	0.095	637.851
0.605	0.095	637.851
0.615	0.095	637.851
0.625	0.095	637.851
0.635	0.095	637.851
0.645	0.095	637.851
0.655	0.095	637.851
0.665	0.095	637.851
0.675	0.095	637.851
0.685	0.095	637.851
0.695	0.095	637.852
0.705	0.095	637.852
0.715	0.095	637.852
0.725	0.095	637.852
0.735	0.095	637.852
0.745	0.095	637.852
0.755	0.095	637.852
0.765	0.095	637.852
0.775	0.095	637.852
0.785	0.095	637.852
0.795	0.095	637.852
0.805	0.095	637.852
0.815	0.095	637.852
0.825	0.095	637.852
0.835	0.095	637.852
0.845	0.095	637.852
0.855	0.095	637.852
0.865	0.095	637.852
0.875	0.095	637.852
0.885	0.095	637.852
0.895	0.095	637.852
0.905	0.095	637.853
0.915	0.095	637.853
0.925	0.095	637.853
0.935	0.095	637.853
0.945	0.095	637.853
0.955	0.095	637.853
0.965	0.095	637.853
0.975	0.095	637.853
0.985	0.095	637.853
0.995	0.095	637.853

0.005	0.105	641.835
0.015	0.105	641.835
0.025	0.105	641.835
0.035	0.105	641.835
0.045	0.105	641.834
0.055	0.105	641.834
0.065	0.105	641.834
0.075	0.105	641.834
0.085	0.105	641.834
0.095	0.105	641.834
0.105	0.105	641.834
0.115	0.105	641.834
0.125	0.105	641.834
0.135	0.105	641.834
0.145	0.105	641.834
0.155	0.105	641.834
0.165	0.105	641.834
0.175	0.105	641.834
0.185	0.105	641.834
0.195	0.105	641.834
0.205	0.105	641.835
0.215	0.105	641.835
0.225	0.105	641.835
0.235	0.105	641.835
0.245	0.105	641.835
0.255	0.105	641.835
0.265	0.105	641.835
0.275	0.105	641.835
0.285	0.105	641.835
0.295	0.105	641.835
0.305	0.105	641.835
0.315	0.105	641.835
0.325	0.105	641.835
0.335	0.105	641.835
0.345	0.105	641.835
0.355	0.105	641.835
0.365	0.105	641.835
0.375	0.105	641.835
0.385	0.105	641.835
0.395	0.105	641.835
0.405	0.105	641.835
0.415	0.105	641.835
0.425	0.105	641.835
0.435	0.105	641.835
0.445	0.105	641.835
0.455	0.105	641.835
0.465	0.105	641.835
0.475	0.105	641.835
0.485	0.105	641.835
0.495	0.105	641.836
0.505	0.105	641.836
0.515	0.105	641.836
0.525	0.105	641.836
0.535	0.105	641.836
0.545	0.105	641.836
0.555	0.105	641.836
0.565	0.105	641.836
0.575	0.105	641.836
0.585	0.105	641.836
0.595	0.105	641.836
0.605	0.105	641.836
0.615	0.105	641.836
0.625	0.105	641.836
0.635	0.105	641.836
0.645	0.105	641.836
0.655	0.105	641.836
0.665	0.105	641.836
0.675	0.105	641.836
0.685	0.105	641.836
0.695	0.105	641.836
0.705	0.105	641.837
0.715	0.105	641.837
0.725	0.105	641.837
0.735	0.105	641.837
0.745	0.105	641.837
0.755	0.105	641.837
0.765	0.105	641.837
0.775	0.105	641.837
0.785	0.105	641.837
0.795	0.105	641.837
0.805	0.105	641.837
0.815	0.105	641.837
0.825	0.105	641.837
0.835	0.105	641.837
0.845	0.105	641.837
0.855	0.105	641.837
0.865	0.105	641.837
0.875	0.105	641.837
0.885	0.105	641.838
0.895	0.105	641.838
0.905	0.105	641.838
0.915	0.105	641.838
0.925	0.105	641.838
0.935	0.105	641.838
0.945	0.105	641.838
0.955	0.105	641.838
0.965	0.105	641.838
0.975	0.105	641.838
0.985	0.105	641.838
0.995	0.105	641.838

0.005	0.115	645.82
0.015	0.115	645.82
0.025	0.115	645.82
0.035	0.115	645.82
0.045	0.115	645.819
0.055	0.115	645.819
0.065	0.115	645.819
0.075	0.115	645.819
0.085	0.115	645.819
0.095	0.115	645.819
0.105	0.115	645.819
0.115	0.115	645.819
0.125	0.115	645.819
0.135	0.115	645.819
0.145	0.115	645.819
0.155	0.115	645.819
0.165	0.115	645.819
0.175	0.115	645.819
0.185	0.115	645.819
0.195	0.115	645.82
0.205	0.115	645.82
0.215	0.115	645.82
0.225	0.115	645.82
0.235	0.115	645.82
0.245	0.115	645.82
0.255	0.115	645.82
0.265	0.115	645.82
0.275	0.115	645.82
0.285	0.115	645.82
0.295	0.115	645.82
0.305	0.115	645.82
0.315	0.115	645.82
0.325	0.115	645.82
0.335	0.115	645.82
0.345	0.115	645.82
0.355	0.115	645.82
0.365	0.115	645.82
0.375	0.115	645.82
0.385	0.115	645.82
0.395	0.115	645.82
0.405	0.115	645.82
0.415	0.115	645.82
0.425	0.115	645.82
0.435	0.115	645.82
0.445	0.115	645.82
0.455	0.115	645.82
0.465	0.115	645.82
0.475	0.115	645.821
0.485	0.115	645.821
0.495	0.115	645.821
0.505	0.115	645.821
0.515	0.115	645.821
0.525	0.115	645.821
0.535	0.115	645.821
0.545	0.115	645.821
0.555	0.115	645.821
0.565	0.115	645.821
0.575	0.115	645.821
0.585	0.115	645.821
0.595	0.115	645.821
0.605	0.115	645.821
0.615	0.115	645.821
0.625	0.115	645.821
0.635	0.115	645.821
0.645	0.115	645.821
0.655	0.115	645.821
0.665	0.115	645.822
0.675	0.115	645.822
0.685	0.115	645.822
0.695	0.115	645.822
0.705	0.115	645.822
0.715	0.115	645.822
0.725	0.115	645.822
0.735	0.115	645.822
0.745	0.115	645.822
0.755	0.115	645.822
0.765	0.115	645.822
0.775	0.115	645.822
0.785	0.115	645.822
0.795	0.115	645.822
0.805	0.115	645.822
0.815	0.115	645.822
0.825	0.115	645.822
0.835	0.115	645.823
0.845	0.115	645.823
0.855	0.115	645.823
0.865	0.115	645.823
0.875	0.115	645.823
0.885	0.115	645.823
0.895	0.115	645.823
0.905	0.115	645.823
0.915	0.115	645.823
0.925	0.115	645.823
0.935	0.115	645.823
0.945	0.115	645.823
0.955	0.115	645.823
0.965	0.115	645.823
0.975	0.115	645.823
0.985	0.115	645.823
0.995	0.115	645.824

0.005	0.125	649.805
0.015	0.125	649.805
0.025	0.125	649.805
0.035	0.125	649.805
0.045	0.125	649.805
0.055	0.125	649.805
0.065	0.125	649.805
0.075	0.125	649.805
0.085	0.125	649.805
0.095	0.125	649.805
0.105	0.125	649.805
0.115	0.125	649.805
0.125	0.125	649.805
0.135	0.125	649.805
0.145	0.125	649.805
0.155	0.125	649.805
0.165	0.125	649.805
0.175	0.125	649.805
0.185	0.125	649.805
0.195	0.125	649.805
0.205	0.125	649.805
0.215	0.125	649.805
0.225	0.125	649.805
0.235	0.125	649.805
0.245	0.125	649.805
0.255	0.125	649.805
0.265	0.125	649.805
0.275	0.125	649.805
0.285	0.125	649.805
0.295	0.125	649.805
0.305	0.125	649.805
0.315	0.125	649.805
0.325	0.125	649.805
0.335	0.125	649.805
0.345	0.125	649.805
0.355	0.125	649.805
0.365	0.125	649.805
0.375	0.125	649.805
0.385	0.125	649.805
0.395	0.125	649.805
0.405	0.125	649.805
0.415	0.125	649.805
0.425	0.125	649.806
0.435	0.125	649.806
0.445	0.125	649.806
0.455	0.125	649.806
0.465	0.125	649.806
0.475	0.125	649.806
0.485	0.125	649.806
0.495	0.125	649.806
0.505	0.125	649.806
0.515	0.125	649.806
0.525	0.125	649.806
0.535	0.125	649.806
0.545	0.125	649.806
0.555	0.125	649.806
0.565	0.125	649.806
0.575	0.125	649.806
0.585	0.125	649.806
0.595	0.125	649.807
0.605	0.125	649.807
0.615	0.125	649.807
0.625	0.125	649.807
0.635	0.125	649.807
0.645	0.125	649.807
0.655	0.125	649.807
0.665	0.125	649.807
0.675	0.125	649.807
0.685	0.125	649.807
0.695	0.125	649.807
0.705	0.125	649.807
0.715	0.125	649.807
0.725	0.125	649.807
0.735	0.125	649.807
0.745	0.125	649.807
0.755	0.125	649.807
0.765	0.125	649.807
0.775	0.125	649.808
0.785	0.125	649.808
0.795	0.125	649.808
0.805	0.125	649.808
0.815	0.125	649.808
0.825	0.125	649.808
0.835	0.125	649.808
0.845	0.125	649.808
0.855	0.125	649.808
0.865	0.125	649.808
0.875	0.125	649.808
0.885	0.125	649.808
0.895	0.125	649.808
0.905	0.125	649.808
0.915	0.125	649.808
0.925	0.125	649.808
0.935	0.125	649.809
0.945	0.125	649.809
0.955	0.125	649.809
0.965	0.125	649.809
0.975	0.125	649.809
0.985	0.125	649.809
0.995	0.125	649.809

0.005	0.135	653.79
0.015	0.135	653.79
0.025	0.135	653.79
0.035	0.135	653.79
0.045	0.135	653.79
0.055	0.135	653.79
0.065	0.135	653.79
0.075	0.135	653.79
0.085	0.135	653.79
0.095	0.135	653.79
0.105	0.135	653.79
0.115	0.135	653.79
0.125	0.135	653.79
0.135	0.135	653.79
0.145	0.135	653.79
0.155	0.135	653.79
0.165	0.135	653.79
0.175	0.135	653.79
0.185	0.135	653.79
0.195	0.135	653.79
0.205	0.135	653.79
0.215	0.135	653.79
0.225	0.135	653.79
0.235	0.135	653.79
0.245	0.135	653.79
0.255	0.135	653.79
0.265	0.135	653.79
0.275	0.135	653.79
0.285	0.135	653.79
0.295	0.135	653.79
0.305	0.135	653.79
0.315	0.135	653.79
0.325	0.135	653.79
0.335	0.135	653.791
0.345	0.135	653.791
0.355	0.135	653.791
0.365	0.135	653.791
0.375	0.135	653.791
0.385	0.135	653.791
0.395	0.135	653.791
0.405	0.135	653.791
0.415	0.135	653.791
0.425	0.135	653.791
0.435	0.135	653.791
0.445	0.135	653.791
0.455	0.135	653.791
0.465	0.135	653.791
0.475	0.135	653.791
0.485	0.135	653.791
0.495	0.135	653.791
0.505	0.135	653.792
0.515	0.135	653.792
0.525	0.135	653.792
0.535	0.135	653.792
0.545	0.135	653.792
0.555	0.135	653.792
0.565	0.135	653.792
0.575	0.135	653.792
0.585	0.135	653.792
0.595	0.135	653.792
0.605	0.135	653.792
0.615	0.135	653.792
0.625	0.135	653.792
0.635	0.135	653.792
0.645	0.135	653.792
0.655	0.135	653.792
0.665	0.135	653.792
0.675	0.135	653.793
0.685	0.135	653.793
0.695	0.135	653.793
0.705	0.135	653.793
0.715	0.135	653.793
0.725	0.135	653.793
0.735	0.135	653.793
0.745	0.135	653.793
0.755	0.135	653.793
0.765	0.135	653.793
0.775	0.135	653.793
0.785	0.135	653.793
0.795	0.135	653.793
0.805	0.135	653.793
0.815	0.135	653.794
0.825	0.135	653.794
0.835	0.135	653.794
0.845	0.135	653.794
0.855	0.135	653.794
0.865	0.135	653.794
0.875	0.135	653.794
0.885	0.135	653.794
0.895	0.135	653.794
0.905	0.135	653.794
0.915	0.135	653.794
0.925	0.135	653.794
0.935	0.135	653.794
0.945	0.135	653.794
0.955	0.135	653.794
0.965	0.135	653.794
0.975	0.135	653.794
0.985	0.135	653.795
0.995	0.135	653.795

0.005	0.145	657.776
0.015	0.145	657.776
0.025	0.145	657.776
0.035	0.145	657.776
0.045	0.145	657.776
0.055	0.145	657.775
0.065	0.145	657.775
0.075	0.145	657.775
0.085	0.145	657.775
0.095	0.145	657.775
0.105	0.145	657.775
0.115	0.145	657.776
0.125	0.145	657.776
0.135	0.145	657.776
0.145	0.145	657.776
0.155	0.145	657.776
0.165	0.145	657.776
0.175	0.145	657.776
0.185	0.145	657.776
0.195	0.145	657.776
0.205	0.145	657.776
0.215	0.145	657.776
0.225	0.145	657.776
0.235	0.145	657.776
0.245	0.145	657.776
0.255	0.145	657.776
0.265	0.145	657.776
0.275	0.145	657.776
0.285	0.145	657.776
0.295	0.145	657.776
0.305	0.145	657.776
0.315	0.145	657.776